 Gaussian 09, Revision D.01,
 Gaussian 09:  AM64L-G09RevD.01 24-Apr-2013

 -----------------------------
 # hf/sto-3g geom=connectivity
 -----------------------------

 -------------------
 Title Card Required
 -------------------
 Symbolic Z-matrix:
 Charge =  0 Multiplicity = 1

                         Standard orientation:
 ---------------------------------------------------------------------
 Center     Atomic      Atomic             Coordinates (Angstroms)
 Number     Number       Type             X           Y           Z
 ---------------------------------------------------------------------
      1          6           0        0.000000    0.000000   -1.490089
      2          1           0        0.000000    1.021081   -1.861852
      3          1           0        0.884282   -0.510541   -1.861852
      4          1           0       -0.884282   -0.510541   -1.861852
      5         35           0        0.000000    0.000000    0.415031
 ---------------------------------------------------------------------

 SCF Done:  E(RHF) =  -2583.81369428     A.U. after    8 cycles

 The electronic state is 1-A1.
 Alpha  occ. eigenvalues -- -484.46463 -63.19109 -57.74122 -57.73885 -57.73885
 Alpha  occ. eigenvalues --  -11.08512  -9.13750  -6.88926  -6.87629  -6.87629
 Alpha  occ. eigenvalues --   -2.24625  -2.24144  -2.24144  -2.22828  -2.22828
 Alpha  occ. eigenvalues --   -0.98481  -0.79276  -0.56913  -0.56913  -0.43515
 Alpha  occ. eigenvalues --   -0.30909  -0.30909
 Alpha virt. eigenvalues --    0.37453   0.67768   0.67768   0.71377

 Mulliken charges:
               1
     1  C   -0.227919
     2  H    0.086323
     3  H    0.086323
     4  H    0.086323
     5  Br  -0.031049
 Sum of Mulliken charges =   0.00000

 Dipole moment (field-independent basis, Debye):
    X=              0.0000    Y=              0.0000    Z=             -1.6005  Tot=              1.6005
 Quadrupole moment (field-independent basis, Debye-Ang):
   XX=            -23.3706   YY=            -23.3706   ZZ=            -21.5616
   XY=              0.0000   XZ=              0.0000   YZ=              0.0000

 Normal termination of Gaussian 09 at Mon Feb 17 21:12:37 2025.
