 Gaussian 09, Revision D.01,
 Gaussian 09:  AM64L-G09RevD.01 24-Apr-2013

 -----------------------------
 # hf/sto-3g geom=connectivity
 -----------------------------

 -------------------
 Title Card Required
 -------------------
 Symbolic Z-matrix:
 Charge = -1 Multiplicity = 1

                         Standard orientation:
 ---------------------------------------------------------------------
 Center     Atomic      Atomic             Coordinates (Angstroms)
 Number     Number       Type             X           Y           Z
 ---------------------------------------------------------------------
      1          6           0       -0.011132   -0.018121    0.000090
      2          1           0       -0.374334   -0.540679   -0.877326
      3          1           0       -0.374437   -0.521963    0.888345
      4          1           0       -0.390769    0.997084   -0.010689
      5         53           0        2.132198    0.001939   -0.000010
      6         35           0       -3.194291    0.002044   -0.000010
 ---------------------------------------------------------------------

 SCF Done:  E(RHF) =  -9434.38345603     A.U. after    9 cycles

 The electronic state is 1-A.
 Alpha  occ. eigenvalues -- **********-483.86686-177.02560-168.30791-168.30721
 Alpha  occ. eigenvalues -- -168.30721 -62.60697 -57.15484 -57.15478 -57.15478
 Alpha  occ. eigenvalues --  -35.47284 -32.41031 -32.40674 -32.40674 -23.22661
 Alpha  occ. eigenvalues --  -23.22566 -23.22566 -23.22256 -23.22256 -10.93186
 Alpha  occ. eigenvalues --   -8.58326  -6.41816  -6.32839  -6.32797  -6.32796
 Alpha  occ. eigenvalues --   -5.02810  -5.01432  -5.01432  -1.83370  -1.82866
 Alpha  occ. eigenvalues --   -1.82866  -1.81647  -1.81647  -1.68001  -1.67989
 Alpha  occ. eigenvalues --   -1.67989  -1.67952  -1.67952  -0.79128  -0.52751
 Alpha  occ. eigenvalues --   -0.42516  -0.41296  -0.41257  -0.25711  -0.15504
 Alpha  occ. eigenvalues --   -0.15503   0.08159   0.08160   0.08340
 Alpha virt. eigenvalues --    0.43913   0.83346   0.83360   0.88015

 Mulliken charges:
               1
     1  C   -0.230819
     2  H    0.105504
     3  H    0.105516
     4  H    0.107461
     5  I   -0.111385
     6  Br  -0.976277
 Sum of Mulliken charges =  -1.00000

 Dipole moment (field-independent basis, Debye):
    X=             12.0126    Y=             -0.0289    Z=              0.0001  Tot=             12.0126
 Quadrupole moment (field-independent basis, Debye-Ang):
   XX=           -105.3306   YY=            -51.0652   ZZ=            -51.0722
   XY=              0.0208   XZ=             -0.0001   YZ=             -0.0001

 Normal termination of Gaussian 09 at Mon Feb 17 23:17:44 2025.
