 Gaussian 09, Revision D.01,
 Gaussian 09:  AM64L-G09RevD.01 24-Apr-2013

 ------------------------------
 # uhf/sto-3g geom=connectivity
 ------------------------------

 -------------------
 Title Card Required
 -------------------
 Symbolic Z-matrix:
 Charge = -1 Multiplicity = 1

                         Standard orientation:
 ---------------------------------------------------------------------
 Center     Atomic      Atomic             Coordinates (Angstroms)
 Number     Number       Type             X           Y           Z
 ---------------------------------------------------------------------
      1         35           0        0.000000    0.000000    0.000000
 ---------------------------------------------------------------------

 SCF Done:  E(UHF) =  -2544.53229064     A.U. after    1 cycles

 The electronic state is 1-A1G.
 Alpha  occ. eigenvalues -- -483.83882 -62.57924 -57.12706 -57.12706 -57.12706
 Alpha  occ. eigenvalues --   -8.55625  -6.30113  -6.30113  -6.30113  -1.65267
 Alpha  occ. eigenvalues --   -1.65267  -1.65267  -1.65267  -1.65267  -0.40236
 Alpha  occ. eigenvalues --    0.10449   0.10449   0.10449
  Beta  occ. eigenvalues -- -483.83882 -62.57924 -57.12706 -57.12706 -57.12706
  Beta  occ. eigenvalues --   -8.55625  -6.30113  -6.30113  -6.30113  -1.65267
  Beta  occ. eigenvalues --   -1.65267  -1.65267  -1.65267  -1.65267  -0.40236
  Beta  occ. eigenvalues --    0.10449   0.10449   0.10449

 Mulliken charges and spin densities:
               1          2
     1  Br  -1.000000   0.000000
 Sum of Mulliken charges =  -1.00000   0.00000

 Dipole moment (field-independent basis, Debye):
    X=              0.0000    Y=              0.0000    Z=              0.0000  Tot=              0.0000
 Quadrupole moment (field-independent basis, Debye-Ang):
   XX=            -17.6442   YY=            -17.6442   ZZ=            -17.6442
   XY=              0.0000   XZ=              0.0000   YZ=              0.0000

 Normal termination of Gaussian 09 at Mon Feb 17 21:18:14 2025.
