 Gaussian 09, Revision D.01,
 Gaussian 09:  AM64L-G09RevD.01 24-Apr-2013

 -----------------------------
 # hf/sto-3g geom=connectivity
 -----------------------------

 -------------------
 Title Card Required
 -------------------
 Symbolic Z-matrix:
 Charge = -1 Multiplicity = 1

                         Standard orientation:
 ---------------------------------------------------------------------
 Center     Atomic      Atomic             Coordinates (Angstroms)
 Number     Number       Type             X           Y           Z
 ---------------------------------------------------------------------
      1          6           0        0.000008    0.004615    0.194130
      2          1           0       -0.882548   -0.504085    0.569860
      3          1           0        0.882783   -0.503711    0.569850
      4          1           0       -0.000207    1.025069    0.564975
      5         17           0       -0.000002   -0.001010    3.393926
      6         35           0       -0.000001   -0.000794   -1.730463
 ---------------------------------------------------------------------

 SCF Done:  E(RHF) =  -3038.30454810     A.U. after    8 cycles

 The electronic state is 1-A.
 Alpha  occ. eigenvalues -- -484.32607-103.01579 -63.05370 -57.60363 -57.60149
 Alpha  occ. eigenvalues --  -57.60149 -10.93830  -9.74660  -9.00270  -7.18725
 Alpha  occ. eigenvalues --   -7.18714  -7.18714  -6.75397  -6.74209  -6.74209
 Alpha  occ. eigenvalues --   -2.11041  -2.10604  -2.10604  -2.09407  -2.09407
 Alpha  occ. eigenvalues --   -0.83732  -0.65508  -0.52448  -0.41492  -0.41482
 Alpha  occ. eigenvalues --   -0.29682  -0.18666  -0.18666   0.04468   0.04468
 Alpha  occ. eigenvalues --    0.04530
 Alpha virt. eigenvalues --    0.50483   0.83291   0.83297   0.88049

 Mulliken charges:
               1
     1  C   -0.200752
     2  H    0.105009
     3  H    0.105008
     4  H    0.104443
     5  Cl  -0.991702
     6  Br  -0.122005
 Sum of Mulliken charges =  -1.00000

 Dipole moment (field-independent basis, Debye):
    X=              0.0000    Y=              0.0096    Z=            -13.7053  Tot=             13.7053
 Quadrupole moment (field-independent basis, Debye-Ang):
   XX=            -35.8546   YY=            -35.8566   ZZ=            -94.4045
   XY=              0.0000   XZ=              0.0000   YZ=              0.0145

 Normal termination of Gaussian 09 at Mon Feb 17 21:37:55 2025.
