 Gaussian 09, Revision D.01,
 Gaussian 09:  AM64L-G09RevD.01 24-Apr-2013

 -----------------------------
 # hf/sto-3g geom=connectivity
 -----------------------------

 -------------------
 Title Card Required
 -------------------
 Symbolic Z-matrix:
 Charge =  0 Multiplicity = 1

                         Standard orientation:
 ---------------------------------------------------------------------
 Center     Atomic      Atomic             Coordinates (Angstroms)
 Number     Number       Type             X           Y           Z
 ---------------------------------------------------------------------
      1         16           0        0.000000    0.000000    0.102066
      2          1           0        0.000000    0.959955   -0.816530
      3          1           0        0.000000   -0.959955   -0.816530
 ---------------------------------------------------------------------

 SCF Done:  E(RHF) =  -394.311630060     A.U. after    7 cycles

 The electronic state is 1-A1.
 Alpha  occ. eigenvalues --  -90.74542  -8.64793  -6.28045  -6.27828  -6.27478
 Alpha  occ. eigenvalues --   -0.89817  -0.50720  -0.39455  -0.27807
 Alpha virt. eigenvalues --    0.47305   0.54345

 Mulliken charges:
               1
     1  S    0.072032
     2  H   -0.036016
     3  H   -0.036016
 Sum of Mulliken charges =   0.00000

 Dipole moment (field-independent basis, Debye):
    X=              0.0000    Y=              0.0000    Z=             -1.0266  Tot=              1.0266
 Quadrupole moment (field-independent basis, Debye-Ang):
   XX=            -13.2025   YY=            -11.3966   ZZ=            -12.0895
   XY=              0.0000   XZ=              0.0000   YZ=              0.0000

 Normal termination of Gaussian 09 at Tue Feb 18 22:25:01 2025.
