 Gaussian 09, Revision D.01,
 Gaussian 09:  AM64L-G09RevD.01 24-Apr-2013

 ---------------------------------
 # opt hf/sto-3g geom=connectivity
 ---------------------------------

 -------------------
 Title Card Required
 -------------------
 Symbolic Z-matrix:
 Charge =  0 Multiplicity = 1

 SCF Done:  E(RHF) =  -787.982246088     A.U. after    8 cycles
 SCF Done:  E(RHF) =  -788.273315819     A.U. after    7 cycles
 SCF Done:  E(RHF) =  -788.553916191     A.U. after    9 cycles
 SCF Done:  E(RHF) =  -788.601866602     A.U. after    9 cycles
 SCF Done:  E(RHF) =  -788.615102020     A.U. after   10 cycles
 SCF Done:  E(RHF) =  -788.620136692     A.U. after    9 cycles
 SCF Done:  E(RHF) =  -788.623020170     A.U. after    9 cycles
 SCF Done:  E(RHF) =  -788.624072955     A.U. after   10 cycles
 SCF Done:  E(RHF) =  -788.624253807     A.U. after    9 cycles
 SCF Done:  E(RHF) =  -788.624275506     A.U. after    8 cycles
 SCF Done:  E(RHF) =  -788.624297743     A.U. after    7 cycles
 SCF Done:  E(RHF) =  -788.624299222     A.U. after    7 cycles
 SCF Done:  E(RHF) =  -788.624301048     A.U. after    8 cycles
 SCF Done:  E(RHF) =  -788.624301750     A.U. after    8 cycles
 SCF Done:  E(RHF) =  -788.624301961     A.U. after    7 cycles
 SCF Done:  E(RHF) =  -788.624301989     A.U. after    7 cycles
 SCF Done:  E(RHF) =  -788.624302001     A.U. after    7 cycles
 SCF Done:  E(RHF) =  -788.624302019     A.U. after    7 cycles
 SCF Done:  E(RHF) =  -788.624302052     A.U. after    7 cycles
 SCF Done:  E(RHF) =  -788.624302056     A.U. after    7 cycles
 Optimization completed.
    -- Stationary point found.

                         Standard orientation:
 ---------------------------------------------------------------------
 Center     Atomic      Atomic             Coordinates (Angstroms)
 Number     Number       Type             X           Y           Z
 ---------------------------------------------------------------------
      1          1           0       -0.769954   -0.069692    0.000068
      2          1           0       -2.174209    1.242453    0.000490
      3          1           0        2.321325   -0.753504    0.959995
      4          1           0        2.321652   -0.751434   -0.961516
      5         16           0       -2.099298   -0.083681   -0.000046
      6         16           0        1.993122    0.104442    0.000107
 ---------------------------------------------------------------------

 The electronic state is 1-A.
 Alpha  occ. eigenvalues --  -90.75486 -90.73296  -8.65717  -8.63643  -6.28969
 Alpha  occ. eigenvalues --   -6.28754  -6.28410  -6.26899  -6.26680  -6.26334
 Alpha  occ. eigenvalues --   -0.90681  -0.88923  -0.51486  -0.50016  -0.40460
 Alpha  occ. eigenvalues --   -0.38529  -0.28473  -0.26988
 Alpha virt. eigenvalues --    0.46566   0.48440   0.53580   0.55586

 Mulliken charges:
               1
     1  H   -0.025493
     2  H   -0.038128
     3  H   -0.031892
     4  H   -0.031892
     5  S    0.055067
     6  S    0.072338
 Sum of Mulliken charges =   0.00000

 Dipole moment (field-independent basis, Debye):
    X=              1.2956    Y=             -0.2409    Z=             -0.0006  Tot=              1.3178
 Quadrupole moment (field-independent basis, Debye-Ang):
   XX=            -26.3059   YY=            -24.0294   ZZ=            -24.5697
   XY=             -4.2457   XZ=             -0.0035   YZ=             -0.0005

 Normal termination of Gaussian 09 at Tue Feb 18 22:39:43 2025.
