 Gaussian 09, Revision D.01,
 Gaussian 09:  AM64L-G09RevD.01 24-Apr-2013

 ---------------------------------
 # opt hf/sto-3g geom=connectivity
 ---------------------------------

 -------------------
 Title Card Required
 -------------------
 Symbolic Z-matrix:
 Charge =  0 Multiplicity = 1

 SCF Done:  E(RHF) =  -149.923947602     A.U. after   10 cycles
 SCF Done:  E(RHF) =  -149.935667255     A.U. after   10 cycles
 SCF Done:  E(RHF) =  -149.938316135     A.U. after   10 cycles
 SCF Done:  E(RHF) =  -149.940317135     A.U. after   11 cycles
 SCF Done:  E(RHF) =  -149.940839298     A.U. after   11 cycles
 SCF Done:  E(RHF) =  -149.940950797     A.U. after    9 cycles
 SCF Done:  E(RHF) =  -149.940993307     A.U. after    9 cycles
 SCF Done:  E(RHF) =  -149.941049865     A.U. after    9 cycles
 SCF Done:  E(RHF) =  -149.941129285     A.U. after   10 cycles
 SCF Done:  E(RHF) =  -149.941173862     A.U. after    9 cycles
 SCF Done:  E(RHF) =  -149.941189677     A.U. after    9 cycles
 SCF Done:  E(RHF) =  -149.941205669     A.U. after    9 cycles
 SCF Done:  E(RHF) =  -149.941219339     A.U. after    9 cycles
 SCF Done:  E(RHF) =  -149.941234260     A.U. after    9 cycles
 SCF Done:  E(RHF) =  -149.941243498     A.U. after    9 cycles
 Optimization completed.
    -- Stationary point found.

                         Standard orientation:
 ---------------------------------------------------------------------
 Center     Atomic      Atomic             Coordinates (Angstroms)
 Number     Number       Type             X           Y           Z
 ---------------------------------------------------------------------
      1          8           0       -1.439856    0.113316   -0.050401
      2          1           0       -0.454148    0.033867   -0.014169
      3          1           0       -1.703139   -0.758358    0.333256
      4          8           0        1.288667   -0.106726    0.049964
      5          1           0        1.685750    0.010799   -0.846170
      6          1           0        1.681049    0.660970    0.530575
 ---------------------------------------------------------------------

 The electronic state is 1-A.
 Alpha  occ. eigenvalues --  -20.29439 -20.18599  -1.29701  -1.21291  -0.63153
 Alpha  occ. eigenvalues --   -0.57648  -0.49422  -0.44252  -0.38868  -0.34701
 Alpha virt. eigenvalues --    0.54215   0.65446   0.66376   0.78185

 Mulliken charges:
               1
     1  O   -0.382904
     2  H    0.196396
     3  H    0.141355
     4  O   -0.333324
     5  H    0.189169
     6  H    0.189309
 Sum of Mulliken charges =   0.00000

 Dipole moment (field-independent basis, Debye):
    X=              2.8270    Y=              0.0477    Z=             -0.0558  Tot=              2.8280
 Quadrupole moment (field-independent basis, Debye-Ang):
   XX=            -10.5862   YY=            -10.7544   ZZ=            -10.5334
   XY=              4.1352   XZ=             -1.8881   YZ=              0.1759

 Normal termination of Gaussian 09 at Tue Feb 18 22:36:07 2025.
