 Gaussian 09, Revision D.01,
 Gaussian 09:  AM64L-G09RevD.01 24-Apr-2013

 -----------------------------
 # hf/sto-3g geom=connectivity
 -----------------------------

 -------------------
 Title Card Required
 -------------------
 Symbolic Z-matrix:
 Charge =  0 Multiplicity = 1

                         Standard orientation:
 ---------------------------------------------------------------------
 Center     Atomic      Atomic             Coordinates (Angstroms)
 Number     Number       Type             X           Y           Z
 ---------------------------------------------------------------------
      1          6           0        0.000000    0.000000   -0.627601
      2          1           0        0.000000    1.025913   -1.013701
      3          1           0        0.888467   -0.512956   -1.013701
      4          1           0       -0.888467   -0.512956   -1.013701
      5          9           0        0.000000    0.000000    0.756301
 ---------------------------------------------------------------------

 SCF Done:  E(RHF) =  -137.169056073     A.U. after    8 cycles

 The electronic state is 1-A1.
 Alpha  occ. eigenvalues --  -25.92643 -11.11068  -1.48105  -0.89402  -0.60107
 Alpha  occ. eigenvalues --   -0.60107  -0.53586  -0.41821  -0.41821
 Alpha virt. eigenvalues --    0.59635   0.68182   0.68182   0.71280

 Mulliken charges:
               1
     1  C   -0.046599
     2  H    0.064182
     3  H    0.064182
     4  H    0.064182
     5  F   -0.145946
 Sum of Mulliken charges =   0.00000

 Dipole moment (field-independent basis, Debye):
    X=              0.0000    Y=              0.0000    Z=             -1.1551  Tot=              1.1551
 Quadrupole moment (field-independent basis, Debye-Ang):
   XX=            -10.8469   YY=            -10.8469   ZZ=            -11.3449
   XY=              0.0000   XZ=              0.0000   YZ=              0.0000

 Normal termination of Gaussian 09 at Mon Feb 17 23:27:23 2025.
