 Gaussian 09, Revision D.01,
 Gaussian 09:  AM64L-G09RevD.01 24-Apr-2013

 -----------------------------
 # hf/sto-3g geom=connectivity
 -----------------------------

 -------------------
 Title Card Required
 -------------------
 Symbolic Z-matrix:
 Charge = -1 Multiplicity = 1

                         Standard orientation:
 ---------------------------------------------------------------------
 Center     Atomic      Atomic             Coordinates (Angstroms)
 Number     Number       Type             X           Y           Z
 ---------------------------------------------------------------------
      1         53           0        0.000000    0.000000    0.000000
 ---------------------------------------------------------------------

 SCF Done:  E(RHF) =  -6850.60517305     A.U. after    1 cycles

 The electronic state is 1-A1G.
 Alpha  occ. eigenvalues -- **********-176.66525-167.94664-167.94664-167.94664
 Alpha  occ. eigenvalues --  -35.11930 -32.05480 -32.05480 -32.05480 -22.87054
 Alpha  occ. eigenvalues --  -22.87054 -22.87054 -22.87054 -22.87054  -6.08149
 Alpha  occ. eigenvalues --   -4.68344  -4.68344  -4.68344  -1.48731  -1.48731
 Alpha  occ. eigenvalues --   -1.48731  -1.48731  -1.48731  -0.29391   0.07107
 Alpha  occ. eigenvalues --    0.07107   0.07107

 Mulliken charges:
               1
     1  I   -1.000000
 Sum of Mulliken charges =  -1.00000

 Dipole moment (field-independent basis, Debye):
    X=              0.0000    Y=              0.0000    Z=              0.0000  Tot=              0.0000
 Quadrupole moment (field-independent basis, Debye-Ang):
   XX=            -28.2931   YY=            -28.2931   ZZ=            -28.2931
   XY=              0.0000   XZ=              0.0000   YZ=              0.0000

 Normal termination of Gaussian 09 at Mon Feb 17 22:22:46 2025.
