 Gaussian 09, Revision D.01,
 Gaussian 09:  AM64L-G09RevD.01 24-Apr-2013

 -----------------------------
 # hf/sto-3g geom=connectivity
 -----------------------------

 -------------------
 Title Card Required
 -------------------
 Symbolic Z-matrix:
 Charge =  0 Multiplicity = 1

                         Standard orientation:
 ---------------------------------------------------------------------
 Center     Atomic      Atomic             Coordinates (Angstroms)
 Number     Number       Type             X           Y           Z
 ---------------------------------------------------------------------
      1          6           0        0.000000    0.000000   -1.786148
      2          1           0        0.000000    1.018358   -2.157798
      3          1           0        0.881924   -0.509179   -2.157798
      4          1           0       -0.881924   -0.509179   -2.157798
      5         53           0        0.000000    0.000000    0.324345
 ---------------------------------------------------------------------

 SCF Done:  E(RHF) =  -6889.83984463     A.U. after    8 cycles

 The electronic state is 1-A1.
 Alpha  occ. eigenvalues -- **********-177.16070-168.44314-168.44233-168.44233
 Alpha  occ. eigenvalues --  -35.60705 -32.54480 -32.54072 -32.54072 -23.36119
 Alpha  occ. eigenvalues --  -23.36010 -23.36010 -23.35654 -23.35654 -11.07256
 Alpha  occ. eigenvalues --   -6.55019  -5.16108  -5.14546  -5.14546  -1.96700
 Alpha  occ. eigenvalues --   -1.96123  -1.96123  -1.94733  -1.94733  -0.94537
 Alpha  occ. eigenvalues --   -0.65758  -0.56451  -0.56451  -0.39240  -0.27371
 Alpha  occ. eigenvalues --   -0.27371
 Alpha virt. eigenvalues --    0.31229   0.68099   0.68099   0.72056

 Mulliken charges:
               1
     1  C   -0.272740
     2  H    0.085663
     3  H    0.085663
     4  H    0.085663
     5  I    0.015751
 Sum of Mulliken charges =   0.00000

 Dipole moment (field-independent basis, Debye):
    X=              0.0000    Y=              0.0000    Z=             -1.7298  Tot=              1.7298
 Quadrupole moment (field-independent basis, Debye-Ang):
   XX=            -33.4529   YY=            -33.4529   ZZ=            -30.8896
   XY=              0.0000   XZ=              0.0000   YZ=              0.0000

 Normal termination of Gaussian 09 at Mon Feb 17 22:18:42 2025.
