 Gaussian 09, Revision D.01,
 Gaussian 09:  AM64L-G09RevD.01 24-Apr-2013

 -----------------------------
 # hf/sto-3g geom=connectivity
 -----------------------------

 -------------------
 Title Card Required
 -------------------
 Symbolic Z-matrix:
 Charge = -1 Multiplicity = 1

                         Standard orientation:
 ---------------------------------------------------------------------
 Center     Atomic      Atomic             Coordinates (Angstroms)
 Number     Number       Type             X           Y           Z
 ---------------------------------------------------------------------
      1          6           0       -1.341640    0.164719   -0.003930
      2          1           0       -1.056691    0.597172    0.930020
      3          1           0       -1.542279    1.076005   -0.541688
      4          1           0       -1.547405   -0.864697   -0.020650
      5         53           0        0.752566   -0.016012   -0.004804
      6          9           0       -3.076641   -0.105350   -0.009943
 ---------------------------------------------------------------------

 SCF Done:  E(RHF) =  -6987.49081589     A.U. after   11 cycles

 The electronic state is 1-A.
 Alpha  occ. eigenvalues -- **********-176.82625-168.10797-168.10761-168.10760
 Alpha  occ. eigenvalues --  -35.27774 -32.21418 -32.21207 -32.21204 -25.28854
 Alpha  occ. eigenvalues --  -23.02983 -23.02937 -23.02936 -23.02776 -23.02776
 Alpha  occ. eigenvalues --  -10.82977  -6.23329  -4.84080  -4.83157  -4.83142
 Alpha  occ. eigenvalues --   -1.64609  -1.64186  -1.64165  -1.63414  -1.63412
 Alpha  occ. eigenvalues --   -0.99129  -0.70999  -0.40151  -0.38687  -0.31451
 Alpha  occ. eigenvalues --   -0.14584  -0.03184  -0.02446   0.00156   0.00501
 Alpha  occ. eigenvalues --    0.12224
 Alpha virt. eigenvalues --    0.63357   0.85275   0.92771   1.08971

 Mulliken charges:
               1
     1  C   -0.152185
     2  H    0.057253
     3  H    0.054227
     4  H    0.091496
     5  I   -0.537044
     6  F   -0.513747
 Sum of Mulliken charges =  -1.00000

 Dipole moment (field-independent basis, Debye):
    X=              4.2435    Y=              0.5000    Z=              0.1568  Tot=              4.2757
 Quadrupole moment (field-independent basis, Debye-Ang):
   XX=            -64.2844   YY=            -38.1504   ZZ=            -38.9596
   XY=             -0.7260   XZ=              0.1073   YZ=             -0.0119

 Normal termination of Gaussian 09 at Mon Feb 17 23:34:11 2025.
