 Gaussian 09, Revision D.01,
 Gaussian 09:  AM64L-G09RevD.01 24-Apr-2013

 -----------------------------
 # hf/sto-3g geom=connectivity
 -----------------------------

 -------------------
 Title Card Required
 -------------------
 Symbolic Z-matrix:
 Charge =  0 Multiplicity = 1

                         Standard orientation:
 ---------------------------------------------------------------------
 Center     Atomic      Atomic             Coordinates (Angstroms)
 Number     Number       Type             X           Y           Z
 ---------------------------------------------------------------------
      1          6           0        2.079961   -0.392766    0.000000
      2          6           0        0.976762    0.682881    0.000000
      3          1           0        2.005325   -1.022401    0.881556
      4          1           0        2.005300   -1.022428   -0.881535
      5          1           0        3.055484    0.086752   -0.000021
      6          1           0        1.075131    1.317117   -0.880028
      7          1           0        1.075130    1.317112    0.880032
      8         35           0       -0.787335   -0.069053    0.000000
 ---------------------------------------------------------------------

 SCF Done:  E(RHF) =  -2622.39474053     A.U. after   10 cycles

 The electronic state is 1-A.
 Alpha  occ. eigenvalues -- -484.45583 -63.18260 -57.73268 -57.73036 -57.73035
 Alpha  occ. eigenvalues --  -11.08915 -11.05770  -9.12971  -6.88135  -6.86864
 Alpha  occ. eigenvalues --   -6.86858  -2.23819  -2.23351  -2.23346  -2.22059
 Alpha  occ. eigenvalues --   -2.22059  -1.02518  -0.88113  -0.76657  -0.60764
 Alpha  occ. eigenvalues --   -0.56032  -0.50701  -0.49207  -0.41029  -0.30468
 Alpha  occ. eigenvalues --   -0.30459
 Alpha virt. eigenvalues --    0.36884   0.62678   0.65130   0.66785   0.73372
 Alpha virt. eigenvalues --    0.75802   0.76020

 Mulliken charges:
               1
     1  C   -0.175980
     2  C   -0.139250
     3  H    0.070053
     4  H    0.070054
     5  H    0.067643
     6  H    0.079205
     7  H    0.079205
     8  Br  -0.050929
 Sum of Mulliken charges =   0.00000

 Dipole moment (field-independent basis, Debye):
    X=              1.6610    Y=              0.5851    Z=              0.0000  Tot=              1.7611
 Quadrupole moment (field-independent basis, Debye-Ang):
   XX=            -29.0378   YY=            -29.2586   ZZ=            -29.4992
   XY=              0.5922   XZ=              0.0000   YZ=              0.0000

 Normal termination of Gaussian 09 at Mon Feb 17 21:54:51 2025.
