 Gaussian 09, Revision D.01,
 Gaussian 09:  AM64L-G09RevD.01 24-Apr-2013

 -----------------------------
 # hf/sto-3g geom=connectivity
 -----------------------------

 -------------------
 Title Card Required
 -------------------
 Symbolic Z-matrix:
 Charge =  0 Multiplicity = 1

                         Standard orientation:
 ---------------------------------------------------------------------
 Center     Atomic      Atomic             Coordinates (Angstroms)
 Number     Number       Type             X           Y           Z
 ---------------------------------------------------------------------
      1          6           0        0.095066    0.546513   -0.000009
      2          6           0       -1.243034   -0.219227    0.000029
      3          1           0        0.144390    1.195569   -0.883519
      4          1           0        0.144336    1.195710    0.883411
      5          1           0       -1.317750   -0.846660    0.882779
      6          1           0       -2.074347    0.479161   -0.003423
      7          1           0       -1.314597   -0.851634   -0.879431
      8          8           0        1.165177   -0.410380   -0.000036
      9          1           0        1.984358    0.147174    0.000355
 ---------------------------------------------------------------------

 SCF Done:  E(RHF) =  -152.132674807     A.U. after   10 cycles

 The electronic state is 1-A.
 Alpha  occ. eigenvalues --  -20.25524 -11.08890 -11.03829  -1.27629  -0.96322
 Alpha  occ. eigenvalues --   -0.79438  -0.61360  -0.60143  -0.51423  -0.48591
 Alpha  occ. eigenvalues --   -0.47200  -0.40799  -0.35327
 Alpha virt. eigenvalues --    0.55970   0.64467   0.64549   0.69838   0.70471
 Alpha virt. eigenvalues --    0.76285   0.77403   0.77794

 Mulliken charges:
               1
     1  C    0.010930
     2  C   -0.182034
     3  H    0.046510
     4  H    0.046515
     5  H    0.066866
     6  H    0.061399
     7  H    0.066930
     8  O   -0.287789
     9  H    0.170673
 Sum of Mulliken charges =   0.00000

 Dipole moment (field-independent basis, Debye):
    X=              0.0825    Y=              1.4341    Z=              0.0005  Tot=              1.4365
 Quadrupole moment (field-independent basis, Debye-Ang):
   XX=            -16.6669   YY=            -18.9588   ZZ=            -18.5045
   XY=              1.7426   XZ=              0.0012   YZ=              0.0003

 Normal termination of Gaussian 09 at Mon Feb 17 22:00:41 2025.
