 Gaussian 09, Revision D.01,
 Gaussian 09:  AM64L-G09RevD.01 24-Apr-2013

 -----------------------------
 # hf/sto-3g geom=connectivity
 -----------------------------

 -------------------
 Title Card Required
 -------------------
 Symbolic Z-matrix:
 Charge = -1 Multiplicity = 1

                         Standard orientation:
 ---------------------------------------------------------------------
 Center     Atomic      Atomic             Coordinates (Angstroms)
 Number     Number       Type             X           Y           Z
 ---------------------------------------------------------------------
      1          6           0        1.551847    1.146359    0.045234
      2          6           0        1.122250   -0.343903    0.027129
      3          1           0        2.541952    1.236528    0.493427
      4          1           0        1.597750    1.541412   -0.964015
      5          1           0        0.849603    1.736041    0.621792
      6          1           0        1.138163   -0.923799    1.212822
      7         35           0       -1.517426   -0.048308   -0.012349
      8          8           0        2.943332   -0.584948   -0.264691
      9          1           0        6.426462   -0.222807    0.480640
     10          1           0        0.964745   -1.811747    0.270913
 ---------------------------------------------------------------------

 SCF Done:  E(RHF) =  -2695.89152909     A.U. after   71 cycles

 The electronic state is 1-A.
 Alpha  occ. eigenvalues -- -484.09268 -62.82736 -57.37627 -57.37516 -57.37515
 Alpha  occ. eigenvalues --  -20.04122 -10.96562 -10.92958  -8.79186  -6.53962
 Alpha  occ. eigenvalues --   -6.53421  -6.53409  -1.89350  -1.89163  -1.89155
 Alpha  occ. eigenvalues --   -1.88583  -1.88582  -0.97546  -0.82679  -0.63984
 Alpha  occ. eigenvalues --   -0.56160  -0.44483  -0.43218  -0.40198  -0.23300
 Alpha  occ. eigenvalues --   -0.21005  -0.16491  -0.06404  -0.06314  -0.05039
 Alpha  occ. eigenvalues --    0.12801
 Alpha virt. eigenvalues --    0.24546   0.33988   0.52909   0.59727   0.82361
 Alpha virt. eigenvalues --    0.82475   0.83471   0.86722

 Mulliken charges:
               1
     1  C   -0.158829
     2  C   -0.019663
     3  H    0.107519
     4  H    0.080106
     5  H    0.089460
     6  H    0.007385
     7  Br  -0.592887
     8  O   -0.169099
     9  H   -0.516028
    10  H    0.172037
 Sum of Mulliken charges =  -1.00000

 Dipole moment (field-independent basis, Debye):
    X=            -12.0831    Y=              0.3120    Z=              0.1089  Tot=             12.0876
 Quadrupole moment (field-independent basis, Debye-Ang):
   XX=           -149.3313   YY=            -32.2955   ZZ=            -37.2416
   XY=              3.7513   XZ=             -5.7318   YZ=             -1.1664

 Normal termination of Gaussian 09 at Mon Feb 17 23:10:33 2025.
