 Gaussian 09, Revision D.01,
 Gaussian 09:  AM64L-G09RevD.01 24-Apr-2013

 ----------------------------------------------
 # opt=modredundant hf/sto-3g geom=connectivity
 ----------------------------------------------

 -------------------
 Title Card Required
 -------------------
 Symbolic Z-matrix:
 Charge =  0 Multiplicity = 1

 SCF Done:  E(RHF) =  -155.455514038     A.U. after    8 cycles
 SCF Done:  E(RHF) =  -155.465344340     A.U. after    8 cycles
 SCF Done:  E(RHF) =  -155.466636107     A.U. after    8 cycles
 SCF Done:  E(RHF) =  -155.466644152     A.U. after    6 cycles
 SCF Done:  E(RHF) =  -155.466646189     A.U. after    6 cycles
 Optimization completed.
    -- Stationary point found.
 SCF Done:  E(RHF) =  -155.464230408     A.U. after    8 cycles
 SCF Done:  E(RHF) =  -155.466097553     A.U. after    7 cycles
 SCF Done:  E(RHF) =  -155.466293104     A.U. after    7 cycles
 SCF Done:  E(RHF) =  -155.466297235     A.U. after    6 cycles
 SCF Done:  E(RHF) =  -155.466297883     A.U. after    5 cycles
 Optimization completed.
 SCF Done:  E(RHF) =  -155.463079614     A.U. after    8 cycles
 SCF Done:  E(RHF) =  -155.465298919     A.U. after    7 cycles
 SCF Done:  E(RHF) =  -155.465336455     A.U. after    7 cycles
 SCF Done:  E(RHF) =  -155.464159566     A.U. after    8 cycles
 SCF Done:  E(RHF) =  -155.466262786     A.U. after    7 cycles
 SCF Done:  E(RHF) =  -155.466297654     A.U. after    7 cycles
    -- Stationary point found.
 SCF Done:  E(RHF) =  -155.464574716     A.U. after    8 cycles
 SCF Done:  E(RHF) =  -155.466613576     A.U. after    7 cycles
 SCF Done:  E(RHF) =  -155.466646143     A.U. after    7 cycles
 SCF Done:  E(RHF) =  -155.466646243     A.U. after    5 cycles
 Optimization completed.
    -- Stationary point found.

                         Standard orientation:
 ---------------------------------------------------------------------
 Center     Atomic      Atomic             Coordinates (Angstroms)
 Number     Number       Type             X           Y           Z
 ---------------------------------------------------------------------
      1          6           0        1.966065    0.124917   -0.000017
      2          6           0        0.568026   -0.523506    0.000022
      3          1           0        2.740543   -0.636397    0.000158
      4          1           0        2.101394    0.747209   -0.879694
      5          1           0        2.101318    0.747515    0.879476
      6          6           0       -0.568043    0.523557    0.000015
      7          1           0        0.467470   -1.162131   -0.875727
      8          1           0        0.467419   -1.162091    0.875782
      9          6           0       -1.966041   -0.124958   -0.000016
     10          1           0       -0.467488    1.162142    0.875788
     11          1           0       -0.467507    1.162188   -0.875731
     12          1           0       -2.740566    0.636333    0.000050
     13          1           0       -2.101304   -0.747354   -0.879653
     14          1           0       -2.101321   -0.747476    0.879527
 ---------------------------------------------------------------------

 The electronic state is 1-A.
 Alpha  occ. eigenvalues --  -11.03849 -11.03819 -11.03167 -11.03165  -1.02748
 Alpha  occ. eigenvalues --   -0.94260  -0.82733  -0.75843  -0.61028  -0.55546
 Alpha  occ. eigenvalues --   -0.54184  -0.53947  -0.48528  -0.46958  -0.43287
 Alpha  occ. eigenvalues --   -0.43089  -0.41489
 Alpha virt. eigenvalues --    0.60125   0.61738   0.65210   0.68379   0.68722
 Alpha virt. eigenvalues --    0.73681   0.75070   0.76556   0.76767   0.76832
 Alpha virt. eigenvalues --    0.79784   0.80018   0.83152

 Mulliken charges:
               1
     1  C   -0.178148
     2  C   -0.094380
     3  H    0.057559
     4  H    0.056420
     5  H    0.056416
     6  C   -0.094379
     7  H    0.051065
     8  H    0.051067
     9  C   -0.178138
    10  H    0.051067
    11  H    0.051066
    12  H    0.057554
    13  H    0.056415
    14  H    0.056415
 Sum of Mulliken charges =   0.00000

 Dipole moment (field-independent basis, Debye):
    X=              0.0000    Y=              0.0000    Z=              0.0000  Tot=              0.0000
 Quadrupole moment (field-independent basis, Debye-Ang):
   XX=            -27.3396   YY=            -26.7874   ZZ=            -26.4546
   XY=             -0.1435   XZ=              0.0000   YZ=              0.0000

 Normal termination of Gaussian 09 at Tue Feb 18 00:11:05 2025.
