 Gaussian 09, Revision D.01,
 Gaussian 09:  AM64L-G09RevD.01 24-Apr-2013

 -----------------------------
 # hf/sto-3g geom=connectivity
 -----------------------------

 -------------------
 Title Card Required
 -------------------
 Symbolic Z-matrix:
 Charge = -1 Multiplicity = 1

                         Standard orientation:
 ---------------------------------------------------------------------
 Center     Atomic      Atomic             Coordinates (Angstroms)
 Number     Number       Type             X           Y           Z
 ---------------------------------------------------------------------
      1          8           0        0.000000    0.000000    0.118657
      2          1           0        0.000000    0.000000   -0.949256
 ---------------------------------------------------------------------

 SCF Done:  E(RHF) =  -74.0650171935     A.U. after    7 cycles

 The electronic state is 1-SG.
 Alpha  occ. eigenvalues --  -19.41573  -0.58061   0.07267   0.23312   0.23312
 Alpha virt. eigenvalues --    1.14355

 Mulliken charges:
               1
     1  O   -0.742269
     2  H   -0.257731
 Sum of Mulliken charges =  -1.00000

 Dipole moment (field-independent basis, Debye):
    X=              0.0000    Y=              0.0000    Z=              0.1293  Tot=              0.1293
 Quadrupole moment (field-independent basis, Debye-Ang):
   XX=             -5.9886   YY=             -5.9886   ZZ=             -6.4345
   XY=              0.0000   XZ=              0.0000   YZ=              0.0000

 Normal termination of Gaussian 09 at Mon Feb 17 21:58:08 2025.
