 Gaussian 09, Revision D.01,
 Gaussian 09:  AM64L-G09RevD.01 24-Apr-2013

 -----------------------------
 # hf/sto-3g geom=connectivity
 -----------------------------

 -------------------
 Title Card Required
 -------------------
 Symbolic Z-matrix:
 Charge =  0 Multiplicity = 1

                         Standard orientation:
 ---------------------------------------------------------------------
 Center     Atomic      Atomic             Coordinates (Angstroms)
 Number     Number       Type             X           Y           Z
 ---------------------------------------------------------------------
      1          6           0       -0.666705   -0.016910   -0.000003
      2          1           0       -1.099581    0.984985   -0.000157
      3          1           0       -1.032292   -0.545381    0.886658
      4          1           0       -1.032527   -0.545776   -0.886361
      5          8           0        0.759060    0.126787   -0.000018
      6          1           0        1.092154   -0.806664    0.000019
 ---------------------------------------------------------------------

 SCF Done:  E(RHF) =  -113.549193230     A.U. after    9 cycles

 The electronic state is 1-A.
 Alpha  occ. eigenvalues --  -20.26331 -11.08581  -1.27850  -0.87697  -0.61095
 Alpha  occ. eigenvalues --   -0.57130  -0.51708  -0.41869  -0.35944
 Alpha virt. eigenvalues --    0.57288   0.65060   0.69698   0.72323   0.73451

 Mulliken charges:
               1
     1  C   -0.071479
     2  H    0.069629
     3  H    0.054001
     4  H    0.054004
     5  O   -0.280155
     6  H    0.174000
 Sum of Mulliken charges =   0.00000

 Dipole moment (field-independent basis, Debye):
    X=             -0.7375    Y=             -1.3168    Z=              0.0000  Tot=              1.5092
 Quadrupole moment (field-independent basis, Debye-Ang):
   XX=            -12.2269   YY=            -11.3343   ZZ=            -12.3763
   XY=             -1.5502   XZ=              0.0002   YZ=              0.0000

 Normal termination of Gaussian 09 at Mon Feb 17 22:20:50 2025.
