 Gaussian 09, Revision D.01,
 Gaussian 09:  AM64L-G09RevD.01 24-Apr-2013

 -----------------------------
 # hf/sto-3g geom=connectivity
 -----------------------------

 -------------------
 Title Card Required
 -------------------
 Symbolic Z-matrix:
 Charge = -1 Multiplicity = 1

                         Standard orientation:
 ---------------------------------------------------------------------
 Center     Atomic      Atomic             Coordinates (Angstroms)
 Number     Number       Type             X           Y           Z
 ---------------------------------------------------------------------
      1          6           0       -1.312941   -0.084427   -0.000682
      2          1           0       -1.479545   -0.039577    1.055316
      3          1           0       -1.276419   -1.016541   -0.524829
      4          1           0       -1.155068    0.849043   -0.499288
      5         53           0        0.784774    0.013518    0.000770
      6          8           0       -3.180905   -0.171646   -0.001974
      7          1           0       -4.357080    1.370333   -0.052130
 ---------------------------------------------------------------------

 SCF Done:  E(RHF) =  -6963.70894514     A.U. after   16 cycles

 The electronic state is 1-A.
 Alpha  occ. eigenvalues -- **********-176.91116-168.19307-168.19258-168.19257
 Alpha  occ. eigenvalues --  -35.36136 -32.29821 -32.29548 -32.29543 -23.11400
 Alpha  occ. eigenvalues --  -23.11337 -23.11335 -23.11116 -23.11116 -19.87679
 Alpha  occ. eigenvalues --  -10.91656  -6.31384  -4.92266  -4.91109  -4.91085
 Alpha  occ. eigenvalues --   -1.72802  -1.72323  -1.72296  -1.71327  -1.71326
 Alpha  occ. eigenvalues --   -0.85865  -0.75386  -0.45166  -0.43580  -0.41145
 Alpha  occ. eigenvalues --   -0.19842  -0.08971  -0.08142  -0.06468  -0.00172
 Alpha  occ. eigenvalues --    0.07332
 Alpha virt. eigenvalues --    0.47656   0.61745   0.81083   0.89205   0.91989

 Mulliken charges:
               1
     1  C   -0.154657
     2  H    0.101365
     3  H    0.090048
     4  H    0.105400
     5  I   -0.386734
     6  O   -0.269916
     7  H   -0.485506
 Sum of Mulliken charges =  -1.00000

 Dipole moment (field-independent basis, Debye):
    X=             10.6451    Y=             -2.6832    Z=              0.1425  Tot=             10.9790
 Quadrupole moment (field-independent basis, Debye-Ang):
   XX=            -97.1481   YY=            -43.2595   ZZ=            -39.9404
   XY=             11.3544   XZ=             -0.7885   YZ=              0.1598

 Normal termination of Gaussian 09 at Mon Feb 17 23:02:55 2025.
