 Gaussian 09, Revision D.01,
 Gaussian 09:  AM64L-G09RevD.01 24-Apr-2013

 -----------------------------
 # hf/sto-3g geom=connectivity
 -----------------------------

 -------------------
 Title Card Required
 -------------------
 Symbolic Z-matrix:
 Charge =  0 Multiplicity = 1

                         Standard orientation:
 ---------------------------------------------------------------------
 Center     Atomic      Atomic             Coordinates (Angstroms)
 Number     Number       Type             X           Y           Z
 ---------------------------------------------------------------------
      1          6           0       -0.669798    1.230151    0.381282
      2          6           0       -1.534886    0.000458   -0.000302
      3          6           0       -0.670427   -1.229743   -0.381526
      4          6           0        0.669385   -1.229962    0.381990
      5          6           0        1.534886   -0.000970   -0.000588
      6          6           0        0.670841    1.229930   -0.380819
      7          1           0       -1.220190   -2.144247   -0.170789
      8          1           0       -2.182036   -0.251655    0.836777
      9          1           0       -2.181859    0.252905   -0.837419
     10          1           0        0.468549    1.219254   -1.449592
     11          1           0       -0.467572    1.218174    1.450050
     12          1           0        0.466046   -1.216437    1.450528
     13          1           0        1.218354   -2.145159    0.172186
     14          1           0        2.180273   -0.254039   -0.838740
     15          1           0        2.183622    0.250518    0.835454
     16          1           0        1.220549    2.144057   -0.168315
     17          1           0       -1.218710    2.144973    0.169707
     18          1           0       -0.467033   -1.217531   -1.450070
 ---------------------------------------------------------------------

 SCF Done:  E(RHF) =  -231.472974251     A.U. after    8 cycles

 The electronic state is 1-A.
 Alpha  occ. eigenvalues --  -11.03428 -11.03417 -11.03403 -11.03395 -11.03359
 Alpha  occ. eigenvalues --  -11.03345  -1.06494  -0.95581  -0.95533  -0.80362
 Alpha  occ. eigenvalues --   -0.79395  -0.69245  -0.62360  -0.61108  -0.56543
 Alpha  occ. eigenvalues --   -0.52799  -0.48576  -0.47460  -0.46770  -0.46543
 Alpha  occ. eigenvalues --   -0.46147  -0.39663  -0.38847  -0.38419
 Alpha virt. eigenvalues --    0.57750   0.59656   0.60708   0.63808   0.65318
 Alpha virt. eigenvalues --    0.65969   0.67249   0.67429   0.73161   0.76116
 Alpha virt. eigenvalues --    0.76331   0.78462   0.78649   0.79477   0.80729

 Mulliken charges:
               1
     1  C   -0.101465
     2  C   -0.102198
     3  C   -0.101461
     4  C   -0.101449
     5  C   -0.102198
     6  C   -0.101476
     7  H    0.052062
     8  H    0.050858
     9  H    0.050855
    10  H    0.049641
    11  H    0.049642
    12  H    0.049641
    13  H    0.052062
    14  H    0.050856
    15  H    0.050857
    16  H    0.052067
    17  H    0.052066
    18  H    0.049640
 Sum of Mulliken charges =   0.00000

 Dipole moment (field-independent basis, Debye):
    X=              0.0000    Y=              0.0002    Z=              0.0000  Tot=              0.0002
 Quadrupole moment (field-independent basis, Debye-Ang):
   XX=            -38.2654   YY=            -38.1192   ZZ=            -37.5221
   XY=             -0.0001   XZ=              0.0001   YZ=              0.0000

 Normal termination of Gaussian 09 at Mon Feb 17 23:41:59 2025.
