 Gaussian 09, Revision D.01,
 Gaussian 09:  AM64L-G09RevD.01 24-Apr-2013

 -----------------------------
 # hf/sto-3g geom=connectivity
 -----------------------------

 -------------------
 Title Card Required
 -------------------
 Symbolic Z-matrix:
 Charge =  0 Multiplicity = 1

                         Standard orientation:
 ---------------------------------------------------------------------
 Center     Atomic      Atomic             Coordinates (Angstroms)
 Number     Number       Type             X           Y           Z
 ---------------------------------------------------------------------
      1          6           0        0.820671    1.221076    0.234078
      2          6           0        1.467819   -0.100185   -0.234090
      3          6           0        0.647148   -1.321254    0.234097
      4          6           0       -0.820664   -1.221076   -0.234095
      5          6           0       -1.467821    0.100177    0.234085
      6          6           0       -0.647152    1.321258   -0.234076
      7          1           0        1.094850   -2.235312   -0.150646
      8          1           0        1.530596   -0.104479   -1.320671
      9          1           0        2.483258   -0.169490    0.150682
     10          1           0        0.855787    1.273309    1.320660
     11          1           0        1.388402    2.065817   -0.150708
     12          1           0       -0.855745   -1.273281   -1.320677
     13          1           0       -1.388407   -2.065827    0.150656
     14          1           0       -2.483255    0.169484   -0.150697
     15          1           0       -1.530610    0.104453    1.320665
     16          1           0       -0.674843    1.377782   -1.320657
     17          1           0       -1.094844    2.235301    0.150715
     18          1           0        0.674808   -1.377731    1.320680
 ---------------------------------------------------------------------

 SCF Done:  E(RHF) =  -231.482671629     A.U. after    8 cycles

 The electronic state is 1-A.
 Alpha  occ. eigenvalues --  -11.03491 -11.03485 -11.03485 -11.03455 -11.03455
 Alpha  occ. eigenvalues --  -11.03428  -1.06645  -0.95873  -0.95873  -0.79234
 Alpha  occ. eigenvalues --   -0.79234  -0.71954  -0.61175  -0.57701  -0.56652
 Alpha  occ. eigenvalues --   -0.56652  -0.48811  -0.48811  -0.46873  -0.44970
 Alpha  occ. eigenvalues --   -0.44970  -0.41581  -0.38403  -0.38403
 Alpha virt. eigenvalues --    0.58559   0.60705   0.60705   0.64139   0.65531
 Alpha virt. eigenvalues --    0.65531   0.70423   0.70424   0.73725   0.75245
 Alpha virt. eigenvalues --    0.75245   0.77517   0.80534   0.80534   0.80576

 Mulliken charges:
               1
     1  C   -0.100808
     2  C   -0.100808
     3  C   -0.100808
     4  C   -0.100808
     5  C   -0.100808
     6  C   -0.100808
     7  H    0.051648
     8  H    0.049160
     9  H    0.051648
    10  H    0.049160
    11  H    0.051648
    12  H    0.049160
    13  H    0.051648
    14  H    0.051648
    15  H    0.049160
    16  H    0.049160
    17  H    0.051648
    18  H    0.049160
 Sum of Mulliken charges =   0.00000

 Dipole moment (field-independent basis, Debye):
    X=              0.0000    Y=              0.0000    Z=              0.0000  Tot=              0.0000
 Quadrupole moment (field-independent basis, Debye-Ang):
   XX=            -38.2700   YY=            -38.2700   ZZ=            -37.4936
   XY=              0.0000   XZ=              0.0000   YZ=              0.0000

 Normal termination of Gaussian 09 at Mon Feb 17 23:40:19 2025.
