 Gaussian 09, Revision D.01,
 Gaussian 09:  AM64L-G09RevD.01 24-Apr-2013

 ---------------------------------------------------
 # opt=calcfc freq=raman hf/sto-3g geom=connectivity
 ---------------------------------------------------

 -------------------
 Title Card Required
 -------------------
 Symbolic Z-matrix:
 Charge =  0 Multiplicity = 1

 SCF Done:  E(RHF) =  -150.941007862     A.U. after   10 cycles
 SCF Done:  E(RHF) =  -150.945946815     A.U. after   10 cycles
 SCF Done:  E(RHF) =  -150.945992462     A.U. after    9 cycles
 SCF Done:  E(RHF) =  -150.945992993     A.U. after    7 cycles
 Optimization completed.
    -- Stationary point found.
 Normal termination of Gaussian 09 at Mon Feb 17 23:54:30 2025.

 ---------------------------------------------------------------
 #N Geom=AllCheck Guess=TCheck SCRF=Check GenChk RHF/STO-3G Freq
 ---------------------------------------------------------------

 Structure from the checkpoint file:  "acetaldehyde.chk"
 -------------------
 Title Card Required
 -------------------
 Charge =  0 Multiplicity = 1

                         Standard orientation:
 ---------------------------------------------------------------------
 Center     Atomic      Atomic             Coordinates (Angstroms)
 Number     Number       Type             X           Y           Z
 ---------------------------------------------------------------------
      1          6           0        0.000000    0.475952    0.000000
      2          8           0        1.214691    0.398579    0.000000
      3          6           0       -0.943980   -0.736439    0.000000
      4          1           0       -1.581362   -0.708779    0.879941
      5          1           0       -1.581362   -0.708779   -0.879941
      6          1           0       -0.375516   -1.660777    0.000000
      7          1           0       -0.515405    1.452626    0.000000
 ---------------------------------------------------------------------

 SCF Done:  E(RHF) =  -150.945992993     A.U. after    1 cycles

 The electronic state is 1-A'.
 Alpha  occ. eigenvalues --  -20.29083 -11.12248 -11.05439  -1.32841  -0.95920
 Alpha  occ. eigenvalues --   -0.74641  -0.60691  -0.56017  -0.54307  -0.50181
 Alpha  occ. eigenvalues --   -0.41561  -0.33662
 Alpha virt. eigenvalues --    0.29118   0.61881   0.66159   0.70959   0.73014
 Alpha virt. eigenvalues --    0.75708   0.97027

 Mulliken charges:
               1
     1  C    0.146097
     2  O   -0.209312
     3  C   -0.207198
     4  H    0.073302
     5  H    0.073302
     6  H    0.076831
     7  H    0.046977
 Sum of Mulliken charges =   0.00000

 Dipole moment (field-independent basis, Debye):
    X=             -1.7775    Y=             -0.1004    Z=              0.0000  Tot=              1.7803
 Quadrupole moment (field-independent basis, Debye-Ang):
   XX=            -19.1316   YY=            -16.7199   ZZ=            -16.4458
   XY=             -0.6726   XZ=              0.0000   YZ=              0.0000

  Exact polarizability:  16.633   0.271  11.264   0.000   0.000   7.701
 Approx polarizability:  17.872  -0.671   8.565   0.000   0.000   6.185

                      1                      2                      3
                     A"                     A'                     A"
 Frequencies --    162.9178               545.3591               896.4187
 Red. masses --      1.2331                 2.8730                 1.1917
 Frc consts  --      0.0193                 0.5034                 0.5642
 IR Inten    --      0.7998                 9.8541                 1.5578
 Raman Activ --      0.4962                 1.1334                 3.3816

                      4                      5                      6
                     A'                     A"                     A'
 Frequencies --   1062.4189              1284.9514              1293.9967
 Red. masses --      2.1256                 1.5840                 1.8818
 Frc consts  --      1.4136                 1.5409                 1.8565
 IR Inten    --      1.4973                 0.5148                24.3848
 Raman Activ --      5.7264                 0.0008                 5.6211

                      7                      8                      9
                     A'                     A'                     A"
 Frequencies --   1619.5946              1703.8721              1806.4182
 Red. masses --      1.1854                 1.2957                 1.0492
 Frc consts  --      1.8321                 2.2164                 2.0173
 IR Inten    --     18.5906                 3.3477                 4.0288
 Raman Activ --      9.6927                 4.9540                15.0184

                     10                     11                     12
                     A'                     A'                     A'
 Frequencies --   1808.1389              2121.6049              3541.2111
 Red. masses --      1.0538                 8.2596                 1.0910
 Frc consts  --      2.0300                21.9048                 8.0611
 IR Inten    --      4.7065                30.0689                23.6999
 Raman Activ --     19.2270                 6.2810                36.7894

                     13                     14                     15
                     A'                     A"                     A'
 Frequencies --   3564.8053              3739.5048              3763.1489
 Red. masses --      1.0389                 1.1069                 1.1101
 Frc consts  --      7.7786                 9.1199                 9.2625
 IR Inten    --      0.7282                 0.0025                 0.1421
 Raman Activ --     46.0108                33.1865                26.0496

 - Thermochemistry -
 -------------------
 Temperature   298.150 Kelvin.  Pressure   1.00000 Atm.
 Atom     1 has atomic number  6 and mass  12.00000

 Molecular mass:    44.02621 amu.
 Principal axes and moments of inertia in atomic units:
                           1         2         3
     Eigenvalues --    32.03641 182.67858 203.56820
           X            0.87051  -0.49214   0.00000
           Y            0.49214   0.87051   0.00000
           Z            0.00000   0.00000   1.00000
 This molecule is an asymmetric top.
 Rotational symmetry number  1.
 Rotational temperatures (Kelvin)      2.70361     0.47413     0.42548
 Rotational constants (GHZ):          56.33407     9.87933     8.86554
 Zero-point vibrational energy     172946.3 (Joules/Mol)
                                   41.33515 (Kcal/Mol)
 Warning -- explicit consideration of   2 degrees of freedom as
           vibrations may cause significant error
 Vibrational temperatures:    234.40   784.65  1289.74  1528.58  1848.76
          (Kelvin)           1861.77  2330.23  2451.49  2599.03  2601.51
                             3052.51  5095.01  5128.95  5380.31  5414.33

 Zero-point correction=                           0.065872 (Hartree/Particle)
 Thermal correction to Energy=                    0.069633
 Thermal correction to Enthalpy=                  0.070577
 Thermal correction to Gibbs Free Energy=         0.040959
 Sum of electronic and zero-point Energies=           -150.880121
 Sum of electronic and thermal Energies=              -150.876360
 Sum of electronic and thermal Enthalpies=            -150.875416
 Sum of electronic and thermal Free Energies=         -150.905034

                     E (Thermal)             CV                S
                      KCal/Mol        Cal/Mol-Kelvin    Cal/Mol-Kelvin
 Total                   43.696             10.267             62.337
 Electronic               0.000              0.000              0.000
 Translational            0.889              2.981             37.273
 Rotational               0.889              2.981             21.704
 Vibrational             41.918              4.305              3.360
 Vibration     1          0.623              1.888              2.516
 Vibration     2          0.901              1.150              0.554

 Optimization completed.
    -- Stationary point found.
 Normal termination of Gaussian 09 at Mon Feb 17 23:54:32 2025.
